date:                Thu Oct 13 11:59:15 BST 2022
hostname:            nid004292
system:              Linux nid004292 4.12.14-197.78_9.1.64-cray_shasta_c #1 SMP Wed Aug 25 14:56:40 UTC 2021 (4e2a900) x86_64 x86_64 x86_64 GNU/Linux
user:                bcamino
input:               /mnt/lustre/a2fs-work2/work/e05/e05/bcamino/aurora/primitive/GaP_B3LYP_doss.d3
output:              /mnt/lustre/a2fs-work2/work/e05/e05/bcamino/aurora/primitive/GaP_B3LYP_doss.out
executable script:   /work/e05/e05/bcamino/runCRYSTAL/Pprop_slurm
executable:          Pproperties
Command:             srun --hint=nomultithread --distribution=block:block Pproperties
Slurm JobID:         
temporary directory: /mnt/lustre/a2fs-work2/work/e05/e05/bcamino/aurora/primitive/tmp_GaP_B3LYP_doss_      
input data /mnt/lustre/a2fs-work2/work/e05/e05/bcamino/aurora/primitive/GaP_B3LYP_doss.d3
NEWK
12 24
1 0
DOSS
2 500 1 50 1 12 0
-1 1
-1 2
END
File found: /mnt/lustre/a2fs-work2/work/e05/e05/bcamino/aurora/primitive/GaP_B3LYP_optgeom.f9, temporarily saved as /mnt/lustre/a2fs-work2/work/e05/e05/bcamino/aurora/primitive/tmp_GaP_B3LYP_doss_/fort.20
File found: /mnt/lustre/a2fs-work2/work/e05/e05/bcamino/aurora/primitive/GaP_B3LYP_optgeom.OPTINFO, temporarily saved as /mnt/lustre/a2fs-work2/work/e05/e05/bcamino/aurora/primitive/tmp_GaP_B3LYP_doss_/OPTINFO.DAT
          47 PROCESSORS WORKING

         
 *******************************************************************************
 *                                                                             *
 *                               CRYSTAL17                                     *
 *                      public : 1.0.2 - March 1st, 2018 STFC/Archer2 build    *
 *                       HTTP://WWW.CRYSTAL.UNITO.IT                           *
 *                                                                             *
 *                              MAIN AUTHORS                                   *
 *                                                                             *
 *  R. DOVESI(1,11), V.R. SAUNDERS(2), C. ROETTI(1,11), R. ORLANDO(1,11),      *
 *  C.M. ZICOVICH-WILSON(1,3), F. PASCALE(4), B. CIVALLERI(1,11),              *
 *  K. DOLL(5), N.M. HARRISON(2,6), I.J. BUSH(7), Ph. D'ARCO(8),               *
 *  M. LLUNELL(9), M. CAUSA'(10), Y. NOEL(8), L. MASCHIO(1,11), A. ERBA(1,11)  *
 *  M. RE'RAT(14), S. CASASSA(1,11)                                            *
 *                                                                             *
 *        CONTRIBUTIONS TO THE CODE HAVE ALSO BEEN GIVEN BY                    *
 *                                                                             *
 *  M. FERRABONE(1,11), M. DE LA PIERRE(1,11), M. FERRERO(1,11),               *
 *  J. BAIMA(1,11), E. ALBANESE(1,11), M.F. PEINTINGER(12), R. BAST(13),       *
 *  B. KIRTMAN(15), V. LACIVITA(1,11), R. DEMICHELIS(1,16)                     *
 *  G. BRANDEBURG(17), S. SALUSTRO(1,11), G. SANSONE(1,11)                     *
 *  M.T. RUGGIERO(18)                                                          *
 *                                                                             *
 * (1) THEORETICAL CHEMISTRY GROUP - UNIVERSITA' DI TORINO - TORINO (ITALY)    *
 * (2) COMPUTATIONAL SCIENCE & ENGINEERING DEPARTMENT - STFC DARESBURY (UK)    *
 * (3) UNIVERSIDAD AUTONOMA DEL ESTADO DE MORELOS - CUERNAVACA (MEXICO)        *
 * (4) UNIVERSITE' DE LORRAINE - NANCY (FRANCE)                                *
 * (5) UNIVERSITAET STUTTGART- STUTTGART (GERMANY)                             *
 * (6) IMPERIAL COLLEGE - LONDON (UK)                                          *
 * (7) OXFORD E-RESEARCH CENTRE - OXFORD (UK)                                  *
 * (8) UPMC - SORBONNE UNIVERSITES - PARIS (FRANCE)                            *
 * (9) UNIVERSIDAD DE BARCELONA - BARCELONA (SPAIN)                            *
 *(10) UNIVERSITA' DI NAPOLI "FEDERICO II" - NAPOLI (ITALY)                    *
 *(11) NIS - NANOSTRUCTURED INTERFACES AND SURFACES - TORINO (ITALY)           *
 *(12) MPI FUER CHEMISCHE ENERGIEKONVERSION - MUELHEIM AN DER RUHR (GERMANY)   *
 *(13) UNIVERSITY OF TROMSO - TROMSO (NORWAY)                                  *
 *(14) UNIVERSITE' DE PAU ET DES PAYS DE L'ADOUR - PAU (FRANCE)                *
 *(15) UNIVERSITY OF CALIFORNIA SANTA BARBARA - SANTA BARBARA (USA)            *
 *(16) CURTIN UNIVERSITY - PERTH (AUSTRALIA)                                   *
 *(17) UNIVERSITY COLLEGE LONDON - LONDON (UK)                                 *
 *(18) CAMBRIDGE UNIVERSITY - CAMBRIDGE (UK)                                   *
 *                                                                             *
 *******************************************************************************
 EEEEEEEEEE STARTING  DATE 13 10 2022 TIME 11:59:16.2

 *******************************************************************************
 GaP                                                                             
 CRYSTAL - PROPERTIES - TYPE OF CALCULATION :  RESTRICTED CLOSED SHELL
 *******************************************************************************
 KOHN-SHAM HAMILTONIAN

 (EXCHANGE)[CORRELATION] FUNCTIONAL:(BECKE 88)[LEE-YANG-PARR]

 NON-LOCAL WEIGHTING FACTOR (EXCHANGE) =           0.9000
 NON-LOCAL WEIGHTING FACTOR [CORRELATION] =        0.8100

 HYBRID EXCHANGE - PERCENTAGE OF FOCK EXCHANGE    20.0000

 DIRECT LATTICE VECTOR COMPONENTS (ANGSTROM)
         0.00000    2.76399    2.76399
         2.76399    0.00000    2.76399
         2.76399    2.76399    0.00000

 LATTICE PARAMETERS  (ANGSTROM AND DEGREES) - PRIMITIVE CELL
       A          B          C         ALPHA      BETA     GAMMA        VOLUME
    3.90888    3.90888    3.90888     60.0000   60.0000   60.0000      42.23193
 *******************************************************************************
 N. OF ATOMS PER CELL         2 COULOMB OVERLAP TOL          (T1) 10**   -8
 NUMBER OF SHELLS            25 COULOMB PENETRATION TOL      (T2) 10**   -8
 NUMBER OF AO                63 EXCHANGE OVERLAP TOL         (T3) 10**   -8
 N. OF ELECTRONS PER CELL    46 EXCHANGE PSEUDO OVP (F(G))   (T4) 10**   -8
 CORE ELECTRONS PER CELL     38 EXCHANGE PSEUDO OVP (P(G))   (T5) 10**  -16
 N. OF SYMMETRY OPERATORS    24 POLE ORDER IN MONO ZONE                   4
 *******************************************************************************
   ATOM N.AT.  SHELL    X(A)      Y(A)      Z(A)      EXAD       N.ELECT.
 *******************************************************************************
    1   31 GA   15     0.000     0.000     0.000   2.831E-01      30.597
    2   15 P    10     1.382    -1.382    -1.382   5.061E-01      15.403
 *******************************************************************************
 DE(K)                   0.000E+00  ENERGY LEVEL SHIFTING        0.00000
 TOTAL ENERGY -2.2661949404679E+03  CONVERGENCE ON ENER        1.228E-11
 KIN. ENERGY   2.2634275803076E+03  VIR. COEFF.           1.01715390E+00
 N. OF SCF CYCLES                6  FERMI ENERGY              -0.185E+00
 WEIGHT OF F(I) IN F(I+1)      80
 SHRINK. FACT.(MONKH.)    10 10 10  SHRINKING FACTOR(GILAT NET)       20
 NUMBER OF K POINTS IN THE IBZ  47  CELL VOLUME (A.U.)        268.800043
 *******************************************************************************

 GCALCO - MAX INDICES DIRECT LATTICE VECTOR    14    14    14
 NO.OF VECTORS CREATED 6999 STARS  105 RMAX    78.17355 BOHR
 TTTTTTTTTTTTTTTTTTTTTTTTTTTTTT gordsh1     TELAPSE        0.84 TCPU        0.66

 MATRIX SIZE: P(G)  118963, F(G)   20112, P(G) IRR    7005, F(G) IRR    3470
 MAX G-VECTOR INDEX FOR 1- AND 2-ELECTRON INTEGRALS 261


 CAPPA:IS1 10;IS2 10;IS3 10; K PTS MONK NET  47; SYMMOPS:K SPACE  48;G SPACE  24


 CAPPA:IS1 12;IS2 12;IS3 12; K PTS MONK NET  72; SYMMOPS:K SPACE  48;G SPACE  24

 *******************************************************************************
 RESTART WITH NEW K POINTS NET
 *******************************************************************************
 POINTS IN THE IBZ                  72 POINTS(GILAT NET)               413
 SHRINK FACTORS(MONK.)        12 12 12 SHRINK FACTOR(GILAT)             24
 *******************************************************************************
 *** K POINTS COORDINATES (OBLIQUE COORDINATES IN UNITS OF IS = 12)
   1-R(  0  0  0)   2-C(  1  0  0)   3-C(  2  0  0)   4-C(  3  0  0)
   5-C(  4  0  0)   6-C(  5  0  0)   7-R(  6  0  0)   8-C(  1  1  0)
   9-C(  2  1  0)  10-C(  3  1  0)  11-C(  4  1  0)  12-C(  5  1  0)
  13-C(  6  1  0)  14-C(  7  1  0)  15-C(  8  1  0)  16-C(  9  1  0)
  17-C( 10  1  0)  18-C( 11  1  0)  19-C(  2  2  0)  20-C(  3  2  0)
  21-C(  4  2  0)  22-C(  5  2  0)  23-C(  6  2  0)  24-C(  7  2  0)
  25-C(  8  2  0)  26-C(  9  2  0)  27-C( 10  2  0)  28-C(  3  3  0)
  29-C(  4  3  0)  30-C(  5  3  0)  31-C(  6  3  0)  32-C(  7  3  0)
  33-C(  8  3  0)  34-C(  9  3  0)  35-C(  4  4  0)  36-C(  5  4  0)
  37-C(  6  4  0)  38-C(  7  4  0)  39-C(  8  4  0)  40-C(  5  5  0)
  41-C(  6  5  0)  42-C(  7  5  0)  43-R(  6  6  0)  44-C(  3  2  1)
  45-C(  4  2  1)  46-C(  5  2  1)  47-C(  6  2  1)  48-C(  7  2  1)
  49-C(  4  3  1)  50-C(  5  3  1)  51-C(  6  3  1)  52-C(  7  3  1)
  53-C(  8  3  1)  54-C(  9  3  1)  55-C( 10  3  1)  56-C(  5  4  1)
  57-C(  6  4  1)  58-C(  7  4  1)  59-C(  8  4  1)  60-C(  9  4  1)
  61-C(  6  5  1)  62-C(  7  5  1)  63-C(  8  5  1)  64-C(  7  6  1)
  65-C(  6  4  2)  66-C(  7  4  2)  67-C(  8  4  2)  68-C(  7  5  2)
  69-C(  8  5  2)  70-C(  9  5  2)  71-C(  8  6  2)  72-C(  9  6  3)

 FERMI ENERGY AND DENSITY MATRIX CALCULATION ON COMPUTED EIGENVECTORS
 DENSITY MATRIX AT SCF CYCLE (  6+1)

 INSULATING STATE
 TOP OF VALENCE BANDS -    BAND     23; K    1; EIG -1.8531964E-01 AU
 BOTTOM OF VIRTUAL BANDS - BAND     24; K    7; EIG -7.0599707E-02 AU
 INDIRECT ENERGY BAND GAP:   3.1217 eV
 BOTTOM OF VIRTUAL BANDS - BAND     24; K    1; EIG -6.5071266E-02 AU

 CORE DENSITY MATRIX CALCULATION
 TTTTTTTTTTTTTTTTTTTTTTTTTTTTTT NEWK        TELAPSE        0.92 TCPU        0.73
 ###############################################################################

 TOTAL AND PROJECTED DENSITY OF STATES - FOURIER LEGENDRE METHOD
 FROM BAND    1 TO BAND   50 ENERGY RANGE -0.37250E+03  0.28314E+01

 ###############################################################################

 NUMBER OF LEGENDRE POLYNOMIALS              12
 NUMBER OF SYMMETRIZED PWS FOR EXPANSION     72
 NUMBER OF K POINTS OF SECONDARY NET        413
 NUMBER OF PROJECTIONS                        2
 NUMBER OF ENERGY POINTS                    498

 *** PROJECTION   1 ATOMIC ORBITALS     1   2   3   4   5   6   7   8   9  10
                                       11  12  13  14  15  16  17  18  19  20
                                       21  22  23  24  25  26  27  28  29  30
                                       31  32  33  34  35  36  37  38  39  40
                                       41

 *** PROJECTION   2 ATOMIC ORBITALS    42  43  44  45  46  47  48  49  50  51
                                       52  53  54  55  56  57  58  59  60  61
                                       62  63

 BAND     INTEGRATED DOSS PER PROJECTION AND TOTAL
           1         2         T
   1   2.00000  -0.00000   2.00000
   2   0.00003   1.99997   2.00000
   3   1.99985   0.00015   2.00000
   4   1.99999   0.00001   2.00000
   5   1.99999   0.00001   2.00000
   6   1.99999   0.00001   2.00000
   7   0.00164   1.99836   2.00000
   8   2.00035  -0.00035   2.00000
   9   0.00076   1.99924   2.00000
  10   0.00073   1.99927   2.00000
  11   0.00077   1.99923   2.00000
  12   2.00010  -0.00010   2.00000
  13   1.99995   0.00005   2.00000
  14   1.99991   0.00009   2.00000
  15   1.97464   0.02536   2.00000
  16   1.99410   0.00590   2.00000
  17   1.99420   0.00580   2.00000
  18   1.99749   0.00251   2.00000
  19   1.99935   0.00065   2.00000
  20   0.43978   1.56022   2.00000
  21   0.93378   1.06622   2.00000
  22   0.65738   1.34262   2.00000
  23   0.60208   1.39792   2.00000
  24   1.27544   0.72456   2.00000
  25   1.30769   0.69231   2.00000
  26   1.35645   0.64355   2.00000
  27   1.36462   0.63538   2.00000
  28   1.04433   0.95567   2.00000
  29   1.17109   0.82891   2.00000
  30   0.82088   1.17912   2.00000
  31   0.86986   1.13014   2.00000
  32   0.73615   1.26385   2.00000
  33   0.72202   1.27798   2.00000
  34   0.99332   1.00668   2.00000
  35   0.85209   1.14791   2.00000
  36   0.81789   1.18211   2.00000
  37   0.96125   1.03875   2.00000
  38   0.95635   1.04365   2.00000
  39   1.03252   0.96748   2.00000
  40   0.90223   1.09777   2.00000
  41   1.11871   0.88129   2.00000
  42   1.16913   0.83087   2.00000
  43   1.18269   0.81731   2.00000
  44   0.90184   1.09816   2.00000
  45   1.82031   0.17969   2.00000
  46   1.97635   0.02365   2.00000
  47   1.98232   0.01768   2.00000
  48   2.02866  -0.02866   2.00000
  49   2.03505  -0.03505   2.00000
  50   2.04036  -0.04036   2.00000

 *** INTEGRATED DENSITIES IN THE ENERGY INTERVAL PER PROJECTION AND TOTAL
       1         2         T
   64.03647   35.96353  100.00000

 *** ENERGY  PROJECTED DENSITY OF STATES - FULL SCALE =    30.21203 AU

-370.24687  21                                                                                                                      
-366.48600  2                                                                                                                       
-362.72513  2                                                                                                                       
-358.96426  2                                                                                                                       
-355.20339  2                                                                                                                       
-351.44252  2                                                                                                                       
-347.68166  2                                                                                                                       
-343.92079  2                                                                                                                       
-340.15992  2                                                                                                                       
-336.39905  2                                                                                                                       
-332.63818  2                                                                                                                       
-328.87731  2                                                                                                                       
-325.11644  2                                                                                                                       
-321.35557  2                                                                                                                       
-317.59470  2                                                                                                                       
-313.83383  2                                                                                                                       
-310.07296  2                                                                                                                       
-306.31209  2                                                                                                                       
-302.55122  2                                                                                                                       
-298.79035  2                                                                                                                       
-295.02948  2                                                                                                                       
-291.26861  2                                                                                                                       
-287.50774  2                                                                                                                       
-283.74687  2                                                                                                                       
-279.98600  2                                                                                                                       
-276.22513  2                                                                                                                       
-272.46426  2                                                                                                                       
-268.70339  2                                                                                                                       
-264.94252  2                                                                                                                       
-261.18165  2                                                                                                                       
-257.42078  2                                                                                                                       
-253.65991  2                                                                                                                       
-249.89904  2                                                                                                                       
-246.13817  2                                                                                                                       
-242.37730  2                                                                                                                       
-238.61643  2                                                                                                                       
-234.85556  2                                                                                                                       
-231.09469  2                                                                                                                       
-227.33382  2                                                                                                                       
-223.57295  2                                                                                                                       
-219.81209  2                                                                                                                       
-216.05122  2                                                                                                                       
-212.29035  2                                                                                                                       
-208.52948  2                                                                                                                       
-204.76861  2                                                                                                                       
-201.00774  2                                                                                                                       
-197.24687  2                                                                                                                       
-193.48600  2                                                                                                                       
-189.72513  2                                                                                                                       
-185.96426  2                                                                                                                       
-182.20339  2                                                                                                                       
-178.44252  2                                                                                                                       
-174.68165  2                                                                                                                       
-170.92078  2                                                                                                                       
-167.15991  2                                                                                                                       
-163.39904  2                                                                                                                       
-159.63817  2                                                                                                                       
-155.87730  2                                                                                                                       
-152.11643  2                                                                                                                       
-148.35556  2                                                                                                                       
-144.59469  2                                                                                                                       
-140.83382  2                                                                                                                       
-137.07295  2                                                                                                                       
-133.31208  2                                                                                                                       
-129.55121  2                                                                                                                       
-125.79034  2                                                                                                                       
-122.02947  2                                                                                                                       
-118.26860  2                                                                                                                       
-114.50773  2                                                                                                                       
-110.74686  2                                                                                                                       
-106.98599  2                                                                                                                       
-103.22512  2                                                                                                                       
 -99.46425  2                                                                                                                       
 -95.70338  2                                                                                                                       
 -91.94251  2                                                                                                                       
 -88.18165  2                                                                                                                       
 -84.42078  2                                                                                                                       
 -80.65991  2                                                                                                                       
 -76.89904  1 2                                                                                                                     
 -73.13817  2                                                                                                                       
 -69.37730  2                                                                                                                       
 -65.61643  2                                                                                                                       
 -61.85556  2                                                                                                                       
 -58.09469  2                                                                                                                       
 -54.33382  2                                                                                                                       
 -50.57295  2                                                                                                                       
 -46.81208  2 1                                                                                                                     
 -43.05121  2                                                                                                                       
 -39.29034  2           1                                                                                                           
 -35.52947  2                                                                                                                       
 -31.76860  2                                                                                                                       
 -28.00773  2                                                                                                                       
 -24.24686  2                                                                                                                       
 -20.48599  2                                                                                                                       
 -16.72512  2                                                                                                                       
 -12.96425  2                                                                                                                       
  -9.20338  2                                                                                                                       
  -5.44251  |       1     2                                                                                                         
  -1.68164  |                                   2                                                                                  1

 *** ENERGY      TOTAL DENSITY OF STATES - FULL SCALE =    39.37090 AU

-370.24687  T                                                                                                                       
-366.48600  T                                                                                                                       
-362.72513  T                                                                                                                       
-358.96426  T                                                                                                                       
-355.20339  T                                                                                                                       
-351.44252  T                                                                                                                       
-347.68166  T                                                                                                                       
-343.92079  T                                                                                                                       
-340.15992  T                                                                                                                       
-336.39905  T                                                                                                                       
-332.63818  T                                                                                                                       
-328.87731  T                                                                                                                       
-325.11644  T                                                                                                                       
-321.35557  T                                                                                                                       
-317.59470  T                                                                                                                       
-313.83383  T                                                                                                                       
-310.07296  T                                                                                                                       
-306.31209  T                                                                                                                       
-302.55122  T                                                                                                                       
-298.79035  T                                                                                                                       
-295.02948  T                                                                                                                       
-291.26861  T                                                                                                                       
-287.50774  T                                                                                                                       
-283.74687  T                                                                                                                       
-279.98600  T                                                                                                                       
-276.22513  T                                                                                                                       
-272.46426  T                                                                                                                       
-268.70339  T                                                                                                                       
-264.94252  T                                                                                                                       
-261.18165  T                                                                                                                       
-257.42078  T                                                                                                                       
-253.65991  T                                                                                                                       
-249.89904  T                                                                                                                       
-246.13817  T                                                                                                                       
-242.37730  T                                                                                                                       
-238.61643  T                                                                                                                       
-234.85556  T                                                                                                                       
-231.09469  T                                                                                                                       
-227.33382  T                                                                                                                       
-223.57295  T                                                                                                                       
-219.81209  T                                                                                                                       
-216.05122  T                                                                                                                       
-212.29035  T                                                                                                                       
-208.52948  T                                                                                                                       
-204.76861  T                                                                                                                       
-201.00774  T                                                                                                                       
-197.24687  T                                                                                                                       
-193.48600  T                                                                                                                       
-189.72513  T                                                                                                                       
-185.96426  T                                                                                                                       
-182.20339  T                                                                                                                       
-178.44252  T                                                                                                                       
-174.68165  T                                                                                                                       
-170.92078  T                                                                                                                       
-167.15991  T                                                                                                                       
-163.39904  T                                                                                                                       
-159.63817  T                                                                                                                       
-155.87730  T                                                                                                                       
-152.11643  T                                                                                                                       
-148.35556  T                                                                                                                       
-144.59469  T                                                                                                                       
-140.83382  T                                                                                                                       
-137.07295  T                                                                                                                       
-133.31208  T                                                                                                                       
-129.55121  T                                                                                                                       
-125.79034  T                                                                                                                       
-122.02947  T                                                                                                                       
-118.26860  T                                                                                                                       
-114.50773  T                                                                                                                       
-110.74686  T                                                                                                                       
-106.98599  T                                                                                                                       
-103.22512  T                                                                                                                       
 -99.46425  T                                                                                                                       
 -95.70338  T                                                                                                                       
 -91.94251  T                                                                                                                       
 -88.18165  T                                                                                                                       
 -84.42078  T                                                                                                                       
 -80.65991  T                                                                                                                       
 -76.89904  |T                                                                                                                      
 -73.13817  T                                                                                                                       
 -69.37730  T                                                                                                                       
 -65.61643  T                                                                                                                       
 -61.85556  T                                                                                                                       
 -58.09469  T                                                                                                                       
 -54.33382  T                                                                                                                       
 -50.57295  T                                                                                                                       
 -46.81208  |T                                                                                                                      
 -43.05121  T                                                                                                                       
 -39.29034  |        T                                                                                                              
 -35.52947  T                                                                                                                       
 -31.76860  T                                                                                                                       
 -28.00773  T                                                                                                                       
 -24.24686  T                                                                                                                       
 -20.48599  T                                                                                                                       
 -16.72512  T                                                                                                                       
 -12.96425  T                                                                                                                       
  -9.20338  T                                                                                                                       
  -5.44251  |                T                                                                                                      
  -1.68164  |                                                                                                                      T

  502 DATA WRITTEN ON UNIT 25 WITH THE FOLLOWING HEADER :
 -%-0DOSS      1   41    0    0    0    0

  502 DATA WRITTEN ON UNIT 25 WITH THE FOLLOWING HEADER :
 -%-0DOSS      2   22    0    0    0    0

  502 DATA WRITTEN ON UNIT 25 WITH THE FOLLOWING HEADER :
 -%-0DOSS      3   63    0    0    0    0
 TTTTTTTTTTTTTTTTTTTTTTTTTTTTTT DOSS        TELAPSE        0.95 TCPU        0.76
 ENDPROP   
 TTTTTTTTTTTTTTTTTTTTTTTTTTTTTT END         TELAPSE        0.95 TCPU        0.76
 EEEEEEEEEE TERMINATION  DATE 13 10 2022 TIME 11:59:16.4
NODE    0 CPU TIME =         0.762
    TOTAL CPU TIME =        26.427
Note: The following floating-point exceptions are signalling: IEEE_DENORMAL
Note: The following floating-point exceptions are signalling: IEEE_DENORMAL
Note: The following floating-point exceptions are signalling: IEEE_DENORMAL
Note: The following floating-point exceptions are signalling: IEEE_DENORMAL
Note: The following floating-point exceptions are signalling: IEEE_DENORMAL
Note: The following floating-point exceptions are signalling: IEEE_DENORMAL
Note: The following floating-point exceptions are signalling: IEEE_DENORMAL
Note: The following floating-point exceptions are signalling: IEEE_DENORMAL
Note: The following floating-point exceptions are signalling: IEEE_DENORMAL
Note: The following floating-point exceptions are signalling: IEEE_DENORMAL
Note: The following floating-point exceptions are signalling: IEEE_DENORMAL
Note: The following floating-point exceptions are signalling: IEEE_DENORMAL
Note: The following floating-point exceptions are signalling: IEEE_DENORMAL
Note: The following floating-point exceptions are signalling: IEEE_DENORMAL
Note: The following floating-point exceptions are signalling: IEEE_DENORMAL
Note: The following floating-point exceptions are signalling: IEEE_DENORMAL
Note: The following floating-point exceptions are signalling: IEEE_DENORMAL
Note: The following floating-point exceptions are signalling: IEEE_DENORMAL
Note: The following floating-point exceptions are signalling: IEEE_DENORMAL
Note: The following floating-point exceptions are signalling: IEEE_DENORMAL
Note: The following floating-point exceptions are signalling: IEEE_DENORMAL
Note: The following floating-point exceptions are signalling: IEEE_DENORMAL
Note: The following floating-point exceptions are signalling: IEEE_DENORMAL
Note: The following floating-point exceptions are signalling: IEEE_DENORMAL
Note: The following floating-point exceptions are signalling: IEEE_DENORMAL
Note: The following floating-point exceptions are signalling: IEEE_DENORMAL
Note: The following floating-point exceptions are signalling: IEEE_DENORMAL
Note: The following floating-point exceptions are signalling: IEEE_DENORMAL
Note: The following floating-point exceptions are signalling: IEEE_DENORMAL
Note: The following floating-point exceptions are signalling: IEEE_DENORMAL
Note: The following floating-point exceptions are signalling: IEEE_DENORMAL
Note: The following floating-point exceptions are signalling: IEEE_DENORMAL
Note: The following floating-point exceptions are signalling: IEEE_DENORMAL
Note: The following floating-point exceptions are signalling: IEEE_DENORMAL
Note: The following floating-point exceptions are signalling: IEEE_DENORMAL
Note: The following floating-point exceptions are signalling: IEEE_DENORMAL
Note: The following floating-point exceptions are signalling: IEEE_DENORMAL
Note: The following floating-point exceptions are signalling: IEEE_DENORMAL
Note: The following floating-point exceptions are signalling: IEEE_DENORMAL
Note: The following floating-point exceptions are signalling: IEEE_DENORMAL
Note: The following floating-point exceptions are signalling: IEEE_DENORMAL
Note: The following floating-point exceptions are signalling: IEEE_DENORMAL
Note: The following floating-point exceptions are signalling: IEEE_DENORMAL
Note: The following floating-point exceptions are signalling: IEEE_DENORMAL
Note: The following floating-point exceptions are signalling: IEEE_DENORMAL
Note: The following floating-point exceptions are signalling: IEEE_DENORMAL
Note: The following floating-point exceptions are signalling: IEEE_DENORMAL
end_date Thu Oct 13 11:59:16 BST 2022
 
TEMPORARY          SAVED (in /mnt/lustre/a2fs-work2/work/e05/e05/bcamino/aurora/primitive)
fort.25            GaP_B3LYP_doss.f2518657    Oct 13 11:59
 
Disk usage:<du -m>
1	/mnt/lustre/a2fs-work2/work/e05/e05/bcamino/aurora/primitive/tmp_GaP_B3LYP_doss_
</du -m>
Filesystem                                          1K-blocks          Used     Available Use% Mounted on
10.253.102.2@o2ib1:10.253.102.3@o2ib1:/cls01097 3582178503216 1733959493244 1811990255060  49% /mnt/lustre/a2fs-work2
10.253.102.2@o2ib1:10.253.102.3@o2ib1:/cls01097 3582178503216 1733959493244 1811990255060  49% /mnt/lustre/a2fs-work2
